 
             +---------------------------------------------------+
             |                                                   |
             |                   WANNIER90                       |
             |                                                   |
             +---------------------------------------------------+
             |                                                   |
             |        Welcome to the Maximally-Localized         |
             |        Generalized Wannier Functions code         |
             |            http://www.wannier.org                 |
             |                                                   |
             |                                                   |
             |  Wannier90 Developer Group:                       |
             |    Giovanni Pizzi    (EPFL)                       |
             |    Valerio Vitale    (Cambridge)                  |
             |    David Vanderbilt  (Rutgers University)         |
             |    Nicola Marzari    (EPFL)                       |
             |    Ivo Souza         (Universidad del Pais Vasco) |
             |    Arash A. Mostofi  (Imperial College London)    |
             |    Jonathan R. Yates (University of Oxford)       |
             |                                                   |
             |  For the full list of Wannier90 3.x authors,      |
             |  please check the code documentation and the      |
             |  README on the GitHub page of the code            |
             |                                                   |
             |                                                   |
             |  Please cite                                      |
             |                                                   |
             |  [ref] "Wannier90 as a community code:            |
             |        new features and applications",            |
             |        G. Pizzi et al., J. Phys. Cond. Matt. 32,  |
             |        165902 (2020).                             |
             |        http://doi.org/10.1088/1361-648X/ab51ff    |
             |                                                   |
             |  in any publications arising from the use of      |
             |  this code. For the method please cite            |
             |                                                   |
             |  [ref] "Maximally Localized Generalised Wannier   |
             |         Functions for Composite Energy Bands"     |
             |         N. Marzari and D. Vanderbilt              |
             |         Phys. Rev. B 56 12847 (1997)              |
             |                                                   |
             |  [ref] "Maximally Localized Wannier Functions     |
             |         for Entangled Energy Bands"               |
             |         I. Souza, N. Marzari and D. Vanderbilt    |
             |         Phys. Rev. B 65 035109 (2001)             |
             |                                                   |
             |                                                   |
             | Copyright (c) 1996-2020                           |
             |        The Wannier90 Developer Group and          |
             |        individual contributors                    |
             |                                                   |
             |      Release: 3.1.0        5th March    2020      |
             |                                                   |
             | This program is free software; you can            |
             | redistribute it and/or modify it under the terms  |
             | of the GNU General Public License as published by |
             | the Free Software Foundation; either version 2 of |
             | the License, or (at your option) any later version|
             |                                                   |
             | This program is distributed in the hope that it   |
             | will be useful, but WITHOUT ANY WARRANTY; without |
             | even the implied warranty of MERCHANTABILITY or   |
             | FITNESS FOR A PARTICULAR PURPOSE. See the GNU     |
             | General Public License for more details.          |
             |                                                   |
             | You should have received a copy of the GNU General|
             | Public License along with this program; if not,   |
             | write to the Free Software Foundation, Inc.,      |
             | 675 Mass Ave, Cambridge, MA 02139, USA.           |
             |                                                   |
             +---------------------------------------------------+
             |    Execution started on 18Jun2024 at 21:47:36     |
             +---------------------------------------------------+
 
 ******************************************************************************
 * -> Using CODATA 2006 constant values                                       *
 *    (http://physics.nist.gov/cuu/Constants/index.html)                      *
 * -> Using Bohr value from CODATA                                            *
 ******************************************************************************
 

 Running in parallel on  48 CPUs

 
                                    ------
                                    SYSTEM
                                    ------
 
                              Lattice Vectors (Ang)
                    a_1     4.543267   0.000000   0.000000
                    a_2     0.000000   4.543267   0.000000
                    a_3     0.000000   0.000000   3.139796
 
                   Unit Cell Volume:      64.80939  (Ang^3)
 
                        Reciprocal-Space Vectors (Ang^-1)
                    b_1     1.382966   0.000000   0.000000
                    b_2     0.000000   1.382966   0.000000
                    b_3     0.000000   0.000000   2.001144
  
 *----------------------------------------------------------------------------*
 |   Site       Fractional Coordinate          Cartesian Coordinate (Ang)     |
 +----------------------------------------------------------------------------+
 | Ru   1   0.50000   0.50000   0.50000   |    2.27163   2.27163   1.56990    |
 | Ru   2   0.00000   0.00000   0.00000   |    0.00000   0.00000   0.00000    |
 | O    1   0.19431   0.80569   0.50000   |    0.88280   3.66046   1.56990    |
 | O    2   0.80569   0.19431   0.50000   |    3.66046   0.88280   1.56990    |
 | O    3   0.69431   0.69431   0.00000   |    3.15444   3.15444   0.00000    |
 | O    4   0.30569   0.30569   0.00000   |    1.38883   1.38883   0.00000    |
 *----------------------------------------------------------------------------*
                                ------------
                                K-POINT GRID
                                ------------
  
             Grid size =  6 x  6 x  9      Total points =  324
  
  
 *---------------------------------- MAIN ------------------------------------*
 |  Number of Wannier Functions               :                22             |
 |  Number of Objective Wannier Functions     :                22             |
 |  Number of input Bloch states              :                96             |
 |  Output verbosity (1=low, 5=high)          :                 1             |
 |  Timing Level (1=low, 5=high)              :                 1             |
 |  Optimisation (0=memory, 3=speed)          :                 3             |
 |  Length Unit                               :               Ang             |
 |  Post-processing setup (write *.nnkp)      :                 F             |
 |  Using Gamma-only branch of algorithms     :                 F             |
 *----------------------------------------------------------------------------*
 *------------------------------- WANNIERISE ---------------------------------*
 |  Total number of iterations                :              1000             |
 |  Number of CG steps before reset           :                 5             |
 |  Trial step length for line search         :             2.000             |
 |  Convergence tolerence                     :         0.100E-09             |
 |  Convergence window                        :                -1             |
 |  Iterations between writing output         :                 1             |
 |  Iterations between backing up to disk     :               100             |
 |  Write r^2_nm to file                      :                 F             |
 |  Write xyz WF centres to file              :                 F             |
 |  Write on-site energies <0n|H|0n> to file  :                 F             |
 |  Use guiding centre to control phases      :                 T             |
 |  Use phases for initial projections        :                 F             |
 |  Iterations before starting guiding centres:                 0             |
 |  Iterations between using guiding centres  :                 1             |
 *----------------------------------------------------------------------------*
 *------------------------------- DISENTANGLE --------------------------------*
 |  Using band disentanglement                :                 T             |
 |  Total number of iterations                :              1000             |
 |  Mixing ratio                              :             0.500             |
 |  Convergence tolerence                     :         1.000E-10             |
 |  Convergence window                        :                 3             |
 *----------------------------------------------------------------------------*
 Time to read parameters        0.057 (sec)

 *---------------------------------- K-MESH ----------------------------------*
 +----------------------------------------------------------------------------+
 |                    Distance to Nearest-Neighbour Shells                    |
 |                    ------------------------------------                    |
 |          Shell             Distance (Ang^-1)          Multiplicity         |
 |          -----             -----------------          ------------         |
 |             1                   0.222349                      2            |
 |             2                   0.230494                      4            |
 |             3                   0.320261                      8            |
 |             4                   0.325968                      4            |
 |             5                   0.394582                      8            |
 |             6                   0.444699                      2            |
 |             7                   0.460989                      4            |
 |             8                   0.500884                      8            |
 |             9                   0.511810                      8            |
 |            10                   0.515401                      8            |
 |            11                   0.551373                      8            |
 |            12                   0.561318                     16            |
 |            13                   0.640521                      8            |
 |            14                   0.651937                      4            |
 |            15                   0.667048                      2            |
 |            16                   0.680731                     16            |
 |            17                   0.688811                      8            |
 |            18                   0.691483                      4            |
 |            19                   0.705748                      8            |
 |            20                   0.726353                      8            |
 |            21                   0.728887                      8            |
 |            22                   0.742434                      8            |
 |            23                   0.762047                     16            |
 |            24                   0.789163                      8            |
 |            25                   0.810841                      8            |
 |            26                   0.822135                      8            |
 |            27                   0.831059                      8            |
 |            28                   0.842966                     16            |
 |            29                   0.853835                     16            |
 |            30                   0.860290                     16            |
 |            31                   0.889398                      2            |
 |            32                   0.918779                      8            |
 |            33                   0.921978                      4            |
 |            34                   0.932724                      8            |
 |            35                   0.942559                     16            |
 |            36                   0.947250                      8            |
 +----------------------------------------------------------------------------+
 | The b-vectors are chosen automatically                                     |
 | The following shells are used:   1,  2                                     |
 +----------------------------------------------------------------------------+
 |                        Shell   # Nearest-Neighbours                        |
 |                        -----   --------------------                        |
 |                          1               2                                 |
 |                          2               4                                 |
 +----------------------------------------------------------------------------+
 | Completeness relation is fully satisfied [Eq. (B1), PRB 56, 12847 (1997)]  |
 +----------------------------------------------------------------------------+
 |                  b_k Vectors (Ang^-1) and Weights (Ang^2)                  |
 |                  ----------------------------------------                  |
 |            No.         b_k(x)      b_k(y)      b_k(z)        w_b           |
 |            ---        --------------------------------     --------        |
 |             1         0.000000    0.000000    0.222349    10.113422        |
 |             2         0.000000    0.000000   -0.222349    10.113422        |
 |             3         0.230494    0.000000    0.000000     9.411292        |
 |             4        -0.230494    0.000000    0.000000     9.411292        |
 |             5         0.000000    0.230494    0.000000     9.411292        |
 |             6         0.000000   -0.230494    0.000000     9.411292        |
 +----------------------------------------------------------------------------+
 |                           b_k Directions (Ang^-1)                          |
 |                           -----------------------                          |
 |            No.           x           y           z                         |
 |            ---        --------------------------------                     |
 |             1         0.000000    0.000000    0.222349                     |
 |             2         0.230494    0.000000    0.000000                     |
 |             3         0.000000    0.230494    0.000000                     |
 +----------------------------------------------------------------------------+
  
 Time to get kmesh              0.205 (sec)
 *============================================================================*
 |                              MEMORY ESTIMATE                               |
 |         Maximum RAM allocated during each phase of the calculation         |
 *============================================================================*
 |                        Disentanglement          388.95 Mb                  |
 |                            Wannierise:           50.77 Mb                  |
 |                          plot_wannier:           50.77 Mb                  |
 *----------------------------------------------------------------------------*
  
 Starting a new Wannier90 calculation ...


 Reading overlaps from wannier90.1.mmn    : File generated by VASP: unknown system

 Reading projections from wannier90.1.amn : File generated by VASP: unknown system

 Time to read overlaps         18.551 (sec)

 *------------------------------- DISENTANGLE --------------------------------*
 +----------------------------------------------------------------------------+
 |                              Energy  Windows                               |
 |                              ---------------                               |
 |                   Outer:  -38.10645  to   59.69253  (eV)                   |
 |                   Inner:   -2.00000  to   11.00000  (eV)                   |
 +----------------------------------------------------------------------------+
   Number of target bands to extract:   22

                   Unitarised projection of Wannier functions                  
                   ------------------------------------------                  
   A_mn = <psi_m|g_n> --> S = A.A^+ --> U = S^-1/2.A
   In dis_project... done
   Using an inner window (linner = T)
   In dis_proj_froz... done

                   Extraction of optimally-connected subspace                  
                   ------------------------------------------                  
 +---------------------------------------------------------------------+<-- DIS
 |  Iter     Omega_I(i-1)      Omega_I(i)      Delta (frac.)    Time   |<-- DIS
 +---------------------------------------------------------------------+<-- DIS
       1      17.73983889      17.14841757       3.449E-02      0.00    <-- DIS
       2      17.19946298      17.03681042       9.547E-03      0.04    <-- DIS
       3      17.08372951      16.96847071       6.793E-03      0.09    <-- DIS
       4      17.00223101      16.92284553       4.691E-03      0.13    <-- DIS
       5      16.94568912      16.89123943       3.224E-03      0.17    <-- DIS
       6      16.90634661      16.86881794       2.225E-03      0.22    <-- DIS
       7      16.87871393      16.85264019       1.547E-03      0.26    <-- DIS
       8      16.85908691      16.84081823       1.085E-03      0.30    <-- DIS
       9      16.84499033      16.83209254       7.663E-04      0.35    <-- DIS
      10      16.83476165      16.82559882       5.446E-04      0.39    <-- DIS
      11      16.82727144      16.82073152       3.888E-04      0.43    <-- DIS
      12      16.82174210      16.81705973       2.784E-04      0.48    <-- DIS
      13      16.81763095      16.81427321       1.997E-04      0.52    <-- DIS
      14      16.81455453      16.81214642       1.432E-04      0.56    <-- DIS
      15      16.81223884      16.81051421       1.026E-04      0.61    <-- DIS
      16      16.81048620      16.80925479       7.326E-05      0.65    <-- DIS
      17      16.80915282      16.80827786       5.206E-05      0.69    <-- DIS
      18      16.80813335      16.80751608       3.673E-05      0.74    <-- DIS
      19      16.80735011      16.80691902       2.565E-05      0.78    <-- DIS
      20      16.80674549      16.80644868       1.766E-05      0.82    <-- DIS
      21      16.80627660      16.80607632       1.192E-05      0.87    <-- DIS
      22      16.80591129      16.80578011       7.806E-06      0.91    <-- DIS
      23      16.80562540      16.80554337       4.881E-06      0.95    <-- DIS
      24      16.80540068      16.80535329       2.820E-06      1.00    <-- DIS
      25      16.80522326      16.80520001       1.384E-06      1.04    <-- DIS
      26      16.80508261      16.80507589       3.998E-07      1.08    <-- DIS
      27      16.80497064      16.80497498      -2.582E-07      1.13    <-- DIS
      28      16.80488116      16.80489264      -6.828E-07      1.17    <-- DIS
      29      16.80480939      16.80482521      -9.414E-07      1.21    <-- DIS
      30      16.80475161      16.80476981      -1.083E-06      1.26    <-- DIS
      31      16.80470494      16.80472416      -1.144E-06      1.30    <-- DIS
      32      16.80466712      16.80468643      -1.149E-06      1.34    <-- DIS
      33      16.80463639      16.80465517      -1.117E-06      1.39    <-- DIS
      34      16.80461134      16.80462920      -1.063E-06      1.43    <-- DIS
      35      16.80459088      16.80460758      -9.940E-07      1.47    <-- DIS
      36      16.80457412      16.80458955      -9.183E-07      1.52    <-- DIS
      37      16.80456036      16.80457448      -8.401E-07      1.56    <-- DIS
      38      16.80454905      16.80456186      -7.626E-07      1.60    <-- DIS
      39      16.80453973      16.80455128      -6.878E-07      1.65    <-- DIS
      40      16.80453204      16.80454240      -6.170E-07      1.69    <-- DIS
      41      16.80452568      16.80453494      -5.509E-07      1.73    <-- DIS
      42      16.80452042      16.80452866      -4.900E-07      1.78    <-- DIS
      43      16.80451607      16.80452337      -4.342E-07      1.82    <-- DIS
      44      16.80451246      16.80451890      -3.836E-07      1.86    <-- DIS
      45      16.80450946      16.80451514      -3.379E-07      1.91    <-- DIS
      46      16.80450697      16.80451196      -2.968E-07      1.95    <-- DIS
      47      16.80450490      16.80450927      -2.600E-07      2.00    <-- DIS
      48      16.80450318      16.80450700      -2.272E-07      2.05    <-- DIS
      49      16.80450174      16.80450507      -1.981E-07      2.09    <-- DIS
      50      16.80450055      16.80450344      -1.722E-07      2.14    <-- DIS
      51      16.80449955      16.80450206      -1.493E-07      2.18    <-- DIS
      52      16.80449872      16.80450089      -1.291E-07      2.22    <-- DIS
      53      16.80449803      16.80449990      -1.114E-07      2.27    <-- DIS
      54      16.80449745      16.80449906      -9.574E-08      2.31    <-- DIS
      55      16.80449697      16.80449835      -8.204E-08      2.35    <-- DIS
      56      16.80449657      16.80449775      -7.004E-08      2.39    <-- DIS
      57      16.80449623      16.80449723      -5.956E-08      2.44    <-- DIS
      58      16.80449595      16.80449680      -5.042E-08      2.48    <-- DIS
      59      16.80449571      16.80449643      -4.247E-08      2.52    <-- DIS
      60      16.80449551      16.80449611      -3.556E-08      2.57    <-- DIS
      61      16.80449535      16.80449585      -2.957E-08      2.61    <-- DIS
      62      16.80449521      16.80449562      -2.439E-08      2.65    <-- DIS
      63      16.80449509      16.80449543      -1.992E-08      2.70    <-- DIS
      64      16.80449499      16.80449526      -1.608E-08      2.74    <-- DIS
      65      16.80449491      16.80449512      -1.278E-08      2.79    <-- DIS
      66      16.80449484      16.80449500      -9.955E-09      2.83    <-- DIS
      67      16.80449478      16.80449490      -7.550E-09      2.87    <-- DIS
      68      16.80449473      16.80449482      -5.507E-09      2.92    <-- DIS
      69      16.80449468      16.80449475      -3.781E-09      2.96    <-- DIS
      70      16.80449464      16.80449468      -2.328E-09      3.00    <-- DIS
      71      16.80449461      16.80449463      -1.113E-09      3.05    <-- DIS
      72      16.80449458      16.80449459      -1.035E-10      3.09    <-- DIS
      73      16.80449456      16.80449455       7.283E-10      3.13    <-- DIS
      74      16.80449454      16.80449452       1.407E-09      3.18    <-- DIS
      75      16.80449452      16.80449449       1.955E-09      3.22    <-- DIS
      76      16.80449450      16.80449446       2.389E-09      3.26    <-- DIS
      77      16.80449449      16.80449444       2.728E-09      3.31    <-- DIS
      78      16.80449448      16.80449443       2.985E-09      3.35    <-- DIS
      79      16.80449447      16.80449441       3.172E-09      3.39    <-- DIS
      80      16.80449446      16.80449440       3.300E-09      3.44    <-- DIS
      81      16.80449445      16.80449439       3.379E-09      3.48    <-- DIS
      82      16.80449444      16.80449438       3.417E-09      3.52    <-- DIS
      83      16.80449443      16.80449437       3.421E-09      3.57    <-- DIS
      84      16.80449442      16.80449437       3.396E-09      3.61    <-- DIS
      85      16.80449442      16.80449436       3.348E-09      3.65    <-- DIS
      86      16.80449441      16.80449436       3.282E-09      3.70    <-- DIS
      87      16.80449441      16.80449435       3.201E-09      3.74    <-- DIS
      88      16.80449440      16.80449435       3.109E-09      3.78    <-- DIS
      89      16.80449440      16.80449435       3.008E-09      3.82    <-- DIS
      90      16.80449439      16.80449434       2.901E-09      3.87    <-- DIS
      91      16.80449439      16.80449434       2.789E-09      3.91    <-- DIS
      92      16.80449438      16.80449434       2.675E-09      3.95    <-- DIS
      93      16.80449438      16.80449434       2.560E-09      4.00    <-- DIS
      94      16.80449438      16.80449434       2.444E-09      4.04    <-- DIS
      95      16.80449437      16.80449434       2.329E-09      4.08    <-- DIS
      96      16.80449437      16.80449433       2.216E-09      4.13    <-- DIS
      97      16.80449437      16.80449433       2.105E-09      4.17    <-- DIS
      98      16.80449437      16.80449433       1.997E-09      4.21    <-- DIS
      99      16.80449436      16.80449433       1.892E-09      4.25    <-- DIS
     100      16.80449436      16.80449433       1.790E-09      4.30    <-- DIS
     101      16.80449436      16.80449433       1.692E-09      4.34    <-- DIS
     102      16.80449436      16.80449433       1.598E-09      4.38    <-- DIS
     103      16.80449436      16.80449433       1.508E-09      4.43    <-- DIS
     104      16.80449435      16.80449433       1.421E-09      4.47    <-- DIS
     105      16.80449435      16.80449433       1.339E-09      4.51    <-- DIS
     106      16.80449435      16.80449433       1.260E-09      4.56    <-- DIS
     107      16.80449435      16.80449433       1.185E-09      4.60    <-- DIS
     108      16.80449435      16.80449433       1.114E-09      4.64    <-- DIS
     109      16.80449435      16.80449433       1.047E-09      4.69    <-- DIS
     110      16.80449435      16.80449433       9.831E-10      4.73    <-- DIS
     111      16.80449435      16.80449433       9.226E-10      4.77    <-- DIS
     112      16.80449434      16.80449433       8.655E-10      4.81    <-- DIS
     113      16.80449434      16.80449433       8.115E-10      4.87    <-- DIS
     114      16.80449434      16.80449433       7.606E-10      4.92    <-- DIS
     115      16.80449434      16.80449433       7.126E-10      4.97    <-- DIS
     116      16.80449434      16.80449433       6.674E-10      5.01    <-- DIS
     117      16.80449434      16.80449433       6.248E-10      5.05    <-- DIS
     118      16.80449434      16.80449433       5.848E-10      5.10    <-- DIS
     119      16.80449434      16.80449433       5.472E-10      5.14    <-- DIS
     120      16.80449434      16.80449433       5.118E-10      5.18    <-- DIS
     121      16.80449434      16.80449433       4.786E-10      5.23    <-- DIS
     122      16.80449434      16.80449433       4.474E-10      5.27    <-- DIS
     123      16.80449434      16.80449433       4.182E-10      5.31    <-- DIS
     124      16.80449434      16.80449433       3.908E-10      5.36    <-- DIS
     125      16.80449434      16.80449433       3.651E-10      5.40    <-- DIS
     126      16.80449433      16.80449433       3.410E-10      5.44    <-- DIS
     127      16.80449433      16.80449433       3.185E-10      5.49    <-- DIS
     128      16.80449433      16.80449433       2.974E-10      5.53    <-- DIS
     129      16.80449433      16.80449433       2.776E-10      5.57    <-- DIS
     130      16.80449433      16.80449433       2.591E-10      5.62    <-- DIS
     131      16.80449433      16.80449433       2.418E-10      5.66    <-- DIS
     132      16.80449433      16.80449433       2.257E-10      5.70    <-- DIS
     133      16.80449433      16.80449433       2.105E-10      5.75    <-- DIS
     134      16.80449433      16.80449433       1.964E-10      5.80    <-- DIS
     135      16.80449433      16.80449433       1.832E-10      5.85    <-- DIS
     136      16.80449433      16.80449433       1.709E-10      5.89    <-- DIS
     137      16.80449433      16.80449433       1.593E-10      5.93    <-- DIS
     138      16.80449433      16.80449433       1.486E-10      5.98    <-- DIS
     139      16.80449433      16.80449433       1.385E-10      6.02    <-- DIS
     140      16.80449433      16.80449433       1.291E-10      6.06    <-- DIS
     141      16.80449433      16.80449433       1.204E-10      6.11    <-- DIS
     142      16.80449433      16.80449433       1.122E-10      6.15    <-- DIS
     143      16.80449433      16.80449433       1.046E-10      6.19    <-- DIS
     144      16.80449433      16.80449433       9.743E-11      6.24    <-- DIS
     145      16.80449433      16.80449433       9.079E-11      6.28    <-- DIS
     146      16.80449433      16.80449433       8.459E-11      6.32    <-- DIS

             <<<      Delta < 1.000E-10  over  3 iterations     >>>
             <<< Disentanglement convergence criteria satisfied >>>

        Final Omega_I    16.80449433 (Ang^2)

 +----------------------------------------------------------------------------+

 Time to disentangle bands      7.887 (sec)

 Writing checkpoint file wannier90.1.chk... done

 
 *------------------------------- WANNIERISE ---------------------------------*
 +--------------------------------------------------------------------+<-- CONV
 | Iter  Delta Spread     RMS Gradient      Spread (Ang^2)      Time  |<-- CONV
 +--------------------------------------------------------------------+<-- CONV
 
 ------------------------------------------------------------------------------
 Initial State
  WF centre and spread    1  ( -2.271633, -2.271633, -1.569898 )     0.84344057
  WF centre and spread    2  ( -2.271633, -2.271633, -1.569898 )     0.83371022
  WF centre and spread    3  ( -2.271633, -2.271633, -1.569898 )     0.83371021
  WF centre and spread    4  ( -2.271633, -2.271633, -1.569898 )     0.78865919
  WF centre and spread    5  ( -2.271633, -2.271633, -1.569898 )     0.84871129
  WF centre and spread    6  (  0.000000,  0.000000,  0.000000 )     0.86060162
  WF centre and spread    7  (  0.000000,  0.000000,  0.000000 )     0.88077558
  WF centre and spread    8  ( -0.000000,  0.000000,  0.000000 )     0.88077558
  WF centre and spread    9  (  0.000000,  0.000000, -0.000000 )     0.84546490
  WF centre and spread   10  (  0.000000,  0.000000,  0.000000 )     0.86629952
  WF centre and spread   11  (  0.879135, -0.879135, -1.569898 )     0.73632318
  WF centre and spread   12  (  0.891482, -0.884638, -1.569898 )     0.71897134
  WF centre and spread   13  (  0.884638, -0.891482, -1.569898 )     0.71897133
  WF centre and spread   14  ( -0.879135,  0.879135, -1.569898 )     0.73632318
  WF centre and spread   15  ( -0.891482,  0.884638, -1.569898 )     0.71897132
  WF centre and spread   16  ( -0.884638,  0.891482, -1.569898 )     0.71897136
  WF centre and spread   17  ( -1.394639, -1.394639,  0.000000 )     0.74262560
  WF centre and spread   18  ( -1.384233, -1.388438,  0.000000 )     0.71578232
  WF centre and spread   19  ( -1.388438, -1.384233,  0.000000 )     0.71578233
  WF centre and spread   20  (  1.394639,  1.394639,  0.000000 )     0.74262560
  WF centre and spread   21  (  1.384233,  1.388438,  0.000000 )     0.71578230
  WF centre and spread   22  (  1.388438,  1.384233,  0.000000 )     0.71578231
  Sum of centres and spreads (-11.358167,-11.358167,-17.268878 )    17.17906086
 
      0     0.172E+02     0.0000000000       17.1790608631       6.56  <-- CONV
        O_D=      0.0010319 O_OD=      0.3735346 O_TOT=     17.1790609 <-- SPRD
 ------------------------------------------------------------------------------
 Cycle:      1
  WF centre and spread    1  ( -2.271633, -2.271633, -1.569898 )     0.84233705
  WF centre and spread    2  ( -2.271633, -2.271633, -1.569898 )     0.83317265
  WF centre and spread    3  ( -2.271633, -2.271633, -1.569898 )     0.83317266
  WF centre and spread    4  ( -2.271633, -2.271633, -1.569898 )     0.78835668
  WF centre and spread    5  ( -2.271633, -2.271633, -1.569898 )     0.84774757
  WF centre and spread    6  (  0.000000,  0.000000,  0.000000 )     0.85934365
  WF centre and spread    7  (  0.000000,  0.000000,  0.000000 )     0.87980189
  WF centre and spread    8  ( -0.000000,  0.000000,  0.000000 )     0.87980191
  WF centre and spread    9  (  0.000000,  0.000000, -0.000000 )     0.84488620
  WF centre and spread   10  (  0.000000,  0.000000,  0.000000 )     0.86514692
  WF centre and spread   11  (  0.878998, -0.878998, -1.569898 )     0.73535466
  WF centre and spread   12  (  0.891406, -0.884658, -1.569898 )     0.71791052
  WF centre and spread   13  (  0.884658, -0.891406, -1.569898 )     0.71791051
  WF centre and spread   14  ( -0.878998,  0.878998, -1.569898 )     0.73535465
  WF centre and spread   15  ( -0.891406,  0.884658, -1.569898 )     0.71791049
  WF centre and spread   16  ( -0.884658,  0.891406, -1.569898 )     0.71791054
  WF centre and spread   17  ( -1.394755, -1.394755,  0.000000 )     0.74167804
  WF centre and spread   18  ( -1.384300, -1.388390,  0.000000 )     0.71472153
  WF centre and spread   19  ( -1.388390, -1.384300,  0.000000 )     0.71472154
  WF centre and spread   20  (  1.394755,  1.394755,  0.000000 )     0.74167803
  WF centre and spread   21  (  1.384300,  1.388390,  0.000000 )     0.71472151
  WF centre and spread   22  (  1.388390,  1.384300,  0.000000 )     0.71472152
  Sum of centres and spreads (-11.358167,-11.358167,-17.268878 )    17.15836071
 
      1    -0.207E-01     0.0827339213       17.1583607125       6.57  <-- CONV
        O_D=      0.0008998 O_OD=      0.3529666 O_TOT=     17.1583607 <-- SPRD
 Delta: O_D= -0.1321228E-03 O_OD= -0.2056803E-01 O_TOT= -0.2070015E-01 <-- DLTA
 ------------------------------------------------------------------------------
 Cycle:      2
  WF centre and spread    1  ( -2.271633, -2.271633, -1.569898 )     0.84211281
  WF centre and spread    2  ( -2.271633, -2.271633, -1.569898 )     0.83325430
  WF centre and spread    3  ( -2.271633, -2.271633, -1.569898 )     0.83325430
  WF centre and spread    4  ( -2.271633, -2.271633, -1.569898 )     0.78842713
  WF centre and spread    5  ( -2.271633, -2.271633, -1.569898 )     0.84758706
  WF centre and spread    6  (  0.000000,  0.000000,  0.000000 )     0.85900974
  WF centre and spread    7  (  0.000000,  0.000000,  0.000000 )     0.87969945
  WF centre and spread    8  ( -0.000000,  0.000000,  0.000000 )     0.87969947
  WF centre and spread    9  (  0.000000,  0.000000, -0.000000 )     0.84483541
  WF centre and spread   10  (  0.000000,  0.000000,  0.000000 )     0.86481959
  WF centre and spread   11  (  0.878927, -0.878927, -1.569898 )     0.73499327
  WF centre and spread   12  (  0.891371, -0.884668, -1.569898 )     0.71749499
  WF centre and spread   13  (  0.884668, -0.891371, -1.569898 )     0.71749499
  WF centre and spread   14  ( -0.878927,  0.878927, -1.569898 )     0.73499326
  WF centre and spread   15  ( -0.891371,  0.884668, -1.569898 )     0.71749497
  WF centre and spread   16  ( -0.884668,  0.891371, -1.569898 )     0.71749501
  WF centre and spread   17  ( -1.394818, -1.394818,  0.000000 )     0.74131046
  WF centre and spread   18  ( -1.384332, -1.388365,  0.000000 )     0.71429454
  WF centre and spread   19  ( -1.388365, -1.384332,  0.000000 )     0.71429456
  WF centre and spread   20  (  1.394818,  1.394818,  0.000000 )     0.74131046
  WF centre and spread   21  (  1.384332,  1.388365,  0.000000 )     0.71429453
  WF centre and spread   22  (  1.388365,  1.384332,  0.000000 )     0.71429454
  Sum of centres and spreads (-11.358167,-11.358167,-17.268878 )    17.15246482
 
      2    -0.590E-02     0.0778176045       17.1524648220       6.59  <-- CONV
        O_D=      0.0008955 O_OD=      0.3470750 O_TOT=     17.1524648 <-- SPRD
 Delta: O_D= -0.4303589E-05 O_OD= -0.5891587E-02 O_TOT= -0.5895891E-02 <-- DLTA
 ------------------------------------------------------------------------------
 Cycle:      3
  WF centre and spread    1  ( -2.271633, -2.271633, -1.569898 )     0.84220431
  WF centre and spread    2  ( -2.271633, -2.271633, -1.569898 )     0.83366170
  WF centre and spread    3  ( -2.271633, -2.271633, -1.569898 )     0.83366170
  WF centre and spread    4  ( -2.271633, -2.271633, -1.569898 )     0.78862121
  WF centre and spread    5  ( -2.271633, -2.271633, -1.569898 )     0.84781650
  WF centre and spread    6  (  0.000000,  0.000000,  0.000000 )     0.85903987
  WF centre and spread    7  (  0.000000,  0.000000,  0.000000 )     0.87998776
  WF centre and spread    8  ( -0.000000,  0.000000,  0.000000 )     0.87998778
  WF centre and spread    9  (  0.000000,  0.000000, -0.000000 )     0.84488847
  WF centre and spread   10  (  0.000000,  0.000000,  0.000000 )     0.86496733
  WF centre and spread   11  (  0.878851, -0.878851, -1.569898 )     0.73451842
  WF centre and spread   12  (  0.891329, -0.884679, -1.569898 )     0.71698177
  WF centre and spread   13  (  0.884679, -0.891329, -1.569898 )     0.71698176
  WF centre and spread   14  ( -0.878851,  0.878851, -1.569898 )     0.73451842
  WF centre and spread   15  ( -0.891329,  0.884679, -1.569898 )     0.71698175
  WF centre and spread   16  ( -0.884679,  0.891329, -1.569898 )     0.71698179
  WF centre and spread   17  ( -1.394887, -1.394887,  0.000000 )     0.74081070
  WF centre and spread   18  ( -1.384374, -1.388337,  0.000000 )     0.71376316
  WF centre and spread   19  ( -1.388337, -1.384374,  0.000000 )     0.71376317
  WF centre and spread   20  (  1.394887,  1.394887,  0.000000 )     0.74081070
  WF centre and spread   21  (  1.384374,  1.388337,  0.000000 )     0.71376314
  WF centre and spread   22  (  1.388337,  1.384374,  0.000000 )     0.71376316
  Sum of centres and spreads (-11.358167,-11.358167,-17.268878 )    17.14847453
 
      3    -0.399E-02     0.0547280169       17.1484745335       6.60  <-- CONV
        O_D=      0.0008679 O_OD=      0.3431123 O_TOT=     17.1484745 <-- SPRD
 Delta: O_D= -0.2754329E-04 O_OD= -0.3962745E-02 O_TOT= -0.3990288E-02 <-- DLTA
 ------------------------------------------------------------------------------
 Cycle:      4
  WF centre and spread    1  ( -2.271633, -2.271633, -1.569898 )     0.84243660
  WF centre and spread    2  ( -2.271633, -2.271633, -1.569898 )     0.83419636
  WF centre and spread    3  ( -2.271633, -2.271633, -1.569898 )     0.83419637
  WF centre and spread    4  ( -2.271633, -2.271633, -1.569898 )     0.78887463
  WF centre and spread    5  ( -2.271633, -2.271633, -1.569898 )     0.84822598
  WF centre and spread    6  (  0.000000,  0.000000,  0.000000 )     0.85922165
  WF centre and spread    7  (  0.000000,  0.000000,  0.000000 )     0.88040786
  WF centre and spread    8  ( -0.000000,  0.000000,  0.000000 )     0.88040788
  WF centre and spread    9  (  0.000000,  0.000000, -0.000000 )     0.84499361
  WF centre and spread   10  (  0.000000,  0.000000,  0.000000 )     0.86530431
  WF centre and spread   11  (  0.878772, -0.878772, -1.569898 )     0.73402589
  WF centre and spread   12  (  0.891284, -0.884692, -1.569898 )     0.71645300
  WF centre and spread   13  (  0.884692, -0.891284, -1.569898 )     0.71645300
  WF centre and spread   14  ( -0.878772,  0.878772, -1.569898 )     0.73402589
  WF centre and spread   15  ( -0.891284,  0.884692, -1.569898 )     0.71645298
  WF centre and spread   16  ( -0.884692,  0.891284, -1.569898 )     0.71645302
  WF centre and spread   17  ( -1.394960, -1.394960,  0.000000 )     0.74028808
  WF centre and spread   18  ( -1.384420, -1.388306,  0.000000 )     0.71319991
  WF centre and spread   19  ( -1.388306, -1.384420,  0.000000 )     0.71319993
  WF centre and spread   20  (  1.394960,  1.394960,  0.000000 )     0.74028808
  WF centre and spread   21  (  1.384420,  1.388306,  0.000000 )     0.71319990
  WF centre and spread   22  (  1.388306,  1.384420,  0.000000 )     0.71319991
  Sum of centres and spreads (-11.358167,-11.358167,-17.268878 )    17.14550483
 
      4    -0.297E-02     0.0507096665       17.1455048314       6.62  <-- CONV
        O_D=      0.0008577 O_OD=      0.3401528 O_TOT=     17.1455048 <-- SPRD
 Delta: O_D= -0.1025426E-04 O_OD= -0.2959448E-02 O_TOT= -0.2969702E-02 <-- DLTA
 ------------------------------------------------------------------------------
 Cycle:      5
  WF centre and spread    1  ( -2.271633, -2.271633, -1.569898 )     0.84274529
  WF centre and spread    2  ( -2.271633, -2.271633, -1.569898 )     0.83473362
  WF centre and spread    3  ( -2.271633, -2.271633, -1.569898 )     0.83473362
  WF centre and spread    4  ( -2.271633, -2.271633, -1.569898 )     0.78911351
  WF centre and spread    5  ( -2.271633, -2.271633, -1.569898 )     0.84871080
  WF centre and spread    6  (  0.000000,  0.000000,  0.000000 )     0.85948491
  WF centre and spread    7  (  0.000000,  0.000000,  0.000000 )     0.88084593
  WF centre and spread    8  ( -0.000000,  0.000000,  0.000000 )     0.88084594
  WF centre and spread    9  (  0.000000,  0.000000, -0.000000 )     0.84509446
  WF centre and spread   10  (  0.000000,  0.000000,  0.000000 )     0.86573834
  WF centre and spread   11  (  0.878698, -0.878698, -1.569898 )     0.73357341
  WF centre and spread   12  (  0.891243, -0.884707, -1.569898 )     0.71598426
  WF centre and spread   13  (  0.884707, -0.891243, -1.569898 )     0.71598425
  WF centre and spread   14  ( -0.878698,  0.878698, -1.569898 )     0.73357341
  WF centre and spread   15  ( -0.891243,  0.884707, -1.569898 )     0.71598424
  WF centre and spread   16  ( -0.884707,  0.891243, -1.569898 )     0.71598428
  WF centre and spread   17  ( -1.395030, -1.395030,  0.000000 )     0.73981249
  WF centre and spread   18  ( -1.384465, -1.388277,  0.000000 )     0.71268469
  WF centre and spread   19  ( -1.388277, -1.384465,  0.000000 )     0.71268470
  WF centre and spread   20  (  1.395030,  1.395030,  0.000000 )     0.73981249
  WF centre and spread   21  (  1.384465,  1.388277,  0.000000 )     0.71268468
  WF centre and spread   22  (  1.388277,  1.384465,  0.000000 )     0.71268469
  Sum of centres and spreads (-11.358167,-11.358167,-17.268878 )    17.14349401
 
      5    -0.201E-02     0.0410917992       17.1434940090       6.63  <-- CONV
        O_D=      0.0008594 O_OD=      0.3381403 O_TOT=     17.1434940 <-- SPRD
 Delta: O_D=  0.1674415E-05 O_OD= -0.2012497E-02 O_TOT= -0.2010822E-02 <-- DLTA
 ------------------------------------------------------------------------------
 Cycle:      6
  WF centre and spread    1  ( -2.271633, -2.271633, -1.569898 )     0.84311569
  WF centre and spread    2  ( -2.271633, -2.271633, -1.569898 )     0.83531697
  WF centre and spread    3  ( -2.271633, -2.271633, -1.569898 )     0.83531697
  WF centre and spread    4  ( -2.271633, -2.271633, -1.569898 )     0.78935105
  WF centre and spread    5  ( -2.271633, -2.271633, -1.569898 )     0.84926647
  WF centre and spread    6  (  0.000000,  0.000000,  0.000000 )     0.85982162
  WF centre and spread    7  (  0.000000,  0.000000,  0.000000 )     0.88132521
  WF centre and spread    8  ( -0.000000,  0.000000,  0.000000 )     0.88132522
  WF centre and spread    9  (  0.000000,  0.000000, -0.000000 )     0.84519156
  WF centre and spread   10  (  0.000000,  0.000000,  0.000000 )     0.86626986
  WF centre and spread   11  (  0.878616, -0.878616, -1.569898 )     0.73312281
  WF centre and spread   12  (  0.891199, -0.884725, -1.569898 )     0.71550696
  WF centre and spread   13  (  0.884725, -0.891199, -1.569898 )     0.71550695
  WF centre and spread   14  ( -0.878616,  0.878616, -1.569898 )     0.73312281
  WF centre and spread   15  ( -0.891199,  0.884725, -1.569898 )     0.71550693
  WF centre and spread   16  ( -0.884725,  0.891199, -1.569898 )     0.71550697
  WF centre and spread   17  ( -1.395109, -1.395109,  0.000000 )     0.73933772
  WF centre and spread   18  ( -1.384514, -1.388244,  0.000000 )     0.71215163
  WF centre and spread   19  ( -1.388244, -1.384514,  0.000000 )     0.71215165
  WF centre and spread   20  (  1.395109,  1.395109,  0.000000 )     0.73933772
  WF centre and spread   21  (  1.384514,  1.388244,  0.000000 )     0.71215162
  WF centre and spread   22  (  1.388244,  1.384514,  0.000000 )     0.71215163
  Sum of centres and spreads (-11.358167,-11.358167,-17.268878 )    17.14185605
 
      6    -0.164E-02     0.0354234118       17.1418560505       6.65  <-- CONV
        O_D=      0.0008623 O_OD=      0.3364994 O_TOT=     17.1418561 <-- SPRD
 Delta: O_D=  0.2965818E-05 O_OD= -0.1640924E-02 O_TOT= -0.1637959E-02 <-- DLTA
 ------------------------------------------------------------------------------
 Cycle:      7
  WF centre and spread    1  ( -2.271633, -2.271633, -1.569898 )     0.84310512
  WF centre and spread    2  ( -2.271633, -2.271633, -1.569898 )     0.83534070
  WF centre and spread    3  ( -2.271633, -2.271633, -1.569898 )     0.83534070
  WF centre and spread    4  ( -2.271633, -2.271633, -1.569898 )     0.78935267
  WF centre and spread    5  ( -2.271633, -2.271633, -1.569898 )     0.84926408
  WF centre and spread    6  (  0.000000,  0.000000,  0.000000 )     0.85980652
  WF centre and spread    7  (  0.000000,  0.000000,  0.000000 )     0.88133511
  WF centre and spread    8  ( -0.000000,  0.000000,  0.000000 )     0.88133512
  WF centre and spread    9  (  0.000000,  0.000000, -0.000000 )     0.84518388
  WF centre and spread   10  (  0.000000,  0.000000,  0.000000 )     0.86625626
  WF centre and spread   11  (  0.878607, -0.878607, -1.569898 )     0.73307112
  WF centre and spread   12  (  0.891194, -0.884727, -1.569898 )     0.71544231
  WF centre and spread   13  (  0.884727, -0.891194, -1.569898 )     0.71544230
  WF centre and spread   14  ( -0.878607,  0.878607, -1.569898 )     0.73307112
  WF centre and spread   15  ( -0.891194,  0.884727, -1.569898 )     0.71544229
  WF centre and spread   16  ( -0.884727,  0.891194, -1.569898 )     0.71544233
  WF centre and spread   17  ( -1.395119, -1.395119,  0.000000 )     0.73928473
  WF centre and spread   18  ( -1.384520, -1.388241,  0.000000 )     0.71207940
  WF centre and spread   19  ( -1.388241, -1.384520,  0.000000 )     0.71207941
  WF centre and spread   20  (  1.395119,  1.395119,  0.000000 )     0.73928473
  WF centre and spread   21  (  1.384520,  1.388241,  0.000000 )     0.71207938
  WF centre and spread   22  (  1.388241,  1.384520,  0.000000 )     0.71207940
  Sum of centres and spreads (-11.358167,-11.358167,-17.268878 )    17.14111869
 
      7    -0.737E-03     0.0326165815       17.1411186852       6.66  <-- CONV
        O_D=      0.0008531 O_OD=      0.3357713 O_TOT=     17.1411187 <-- SPRD
 Delta: O_D= -0.9222461E-05 O_OD= -0.7281429E-03 O_TOT= -0.7373653E-03 <-- DLTA
 ------------------------------------------------------------------------------
 Cycle:      8
  WF centre and spread    1  ( -2.271633, -2.271633, -1.569898 )     0.84316486
  WF centre and spread    2  ( -2.271633, -2.271633, -1.569898 )     0.83546652
  WF centre and spread    3  ( -2.271633, -2.271633, -1.569898 )     0.83546652
  WF centre and spread    4  ( -2.271633, -2.271633, -1.569898 )     0.78937722
  WF centre and spread    5  ( -2.271633, -2.271633, -1.569898 )     0.84936398
  WF centre and spread    6  (  0.000000,  0.000000,  0.000000 )     0.85987287
  WF centre and spread    7  (  0.000000,  0.000000,  0.000000 )     0.88144494
  WF centre and spread    8  ( -0.000000,  0.000000,  0.000000 )     0.88144496
  WF centre and spread    9  (  0.000000,  0.000000, -0.000000 )     0.84518518
  WF centre and spread   10  (  0.000000,  0.000000,  0.000000 )     0.86636172
  WF centre and spread   11  (  0.878581, -0.878581, -1.569898 )     0.73298238
  WF centre and spread   12  (  0.891181, -0.884732, -1.569898 )     0.71531432
  WF centre and spread   13  (  0.884732, -0.891181, -1.569898 )     0.71531431
  WF centre and spread   14  ( -0.878581,  0.878581, -1.569898 )     0.73298237
  WF centre and spread   15  ( -0.891181,  0.884732, -1.569898 )     0.71531429
  WF centre and spread   16  ( -0.884732,  0.891181, -1.569898 )     0.71531433
  WF centre and spread   17  ( -1.395144, -1.395144,  0.000000 )     0.73919006
  WF centre and spread   18  ( -1.384534, -1.388233,  0.000000 )     0.71193226
  WF centre and spread   19  ( -1.388233, -1.384534,  0.000000 )     0.71193228
  WF centre and spread   20  (  1.395144,  1.395144,  0.000000 )     0.73919006
  WF centre and spread   21  (  1.384534,  1.388233,  0.000000 )     0.71193225
  WF centre and spread   22  (  1.388233,  1.384534,  0.000000 )     0.71193226
  Sum of centres and spreads (-11.358167,-11.358167,-17.268878 )    17.14047995
 
      8    -0.639E-03     0.0221044114       17.1404799450       6.67  <-- CONV
        O_D=      0.0008504 O_OD=      0.3351352 O_TOT=     17.1404799 <-- SPRD
 Delta: O_D= -0.2701411E-05 O_OD= -0.6360388E-03 O_TOT= -0.6387402E-03 <-- DLTA
 ------------------------------------------------------------------------------
 Cycle:      9
  WF centre and spread    1  ( -2.271633, -2.271633, -1.569898 )     0.84328152
  WF centre and spread    2  ( -2.271633, -2.271633, -1.569898 )     0.83567088
  WF centre and spread    3  ( -2.271633, -2.271633, -1.569898 )     0.83567088
  WF centre and spread    4  ( -2.271633, -2.271633, -1.569898 )     0.78942878
  WF centre and spread    5  ( -2.271633, -2.271633, -1.569898 )     0.84955487
  WF centre and spread    6  (  0.000000,  0.000000,  0.000000 )     0.85999460
  WF centre and spread    7  (  0.000000,  0.000000,  0.000000 )     0.88162250
  WF centre and spread    8  ( -0.000000,  0.000000,  0.000000 )     0.88162252
  WF centre and spread    9  (  0.000000,  0.000000, -0.000000 )     0.84520024
  WF centre and spread   10  (  0.000000,  0.000000,  0.000000 )     0.86655678
  WF centre and spread   11  (  0.878543, -0.878543, -1.569898 )     0.73286003
  WF centre and spread   12  (  0.891162, -0.884740, -1.569898 )     0.71513827
  WF centre and spread   13  (  0.884740, -0.891162, -1.569898 )     0.71513826
  WF centre and spread   14  ( -0.878543,  0.878543, -1.569898 )     0.73286003
  WF centre and spread   15  ( -0.891162,  0.884740, -1.569898 )     0.71513825
  WF centre and spread   16  ( -0.884740,  0.891162, -1.569898 )     0.71513829
  WF centre and spread   17  ( -1.395183, -1.395183,  0.000000 )     0.73906262
  WF centre and spread   18  ( -1.384555, -1.388221,  0.000000 )     0.71172822
  WF centre and spread   19  ( -1.388221, -1.384555,  0.000000 )     0.71172823
  WF centre and spread   20  (  1.395183,  1.395183,  0.000000 )     0.73906262
  WF centre and spread   21  (  1.384555,  1.388221,  0.000000 )     0.71172820
  WF centre and spread   22  (  1.388221,  1.384555,  0.000000 )     0.71172822
  Sum of centres and spreads (-11.358167,-11.358167,-17.268878 )    17.13991482
 
      9    -0.565E-03     0.0207171482       17.1399148193       6.69  <-- CONV
        O_D=      0.0008555 O_OD=      0.3345650 O_TOT=     17.1399148 <-- SPRD
 Delta: O_D=  0.5128356E-05 O_OD= -0.5702541E-03 O_TOT= -0.5651257E-03 <-- DLTA
 ------------------------------------------------------------------------------
 Cycle:     10
  WF centre and spread    1  ( -2.271633, -2.271633, -1.569898 )     0.84343623
  WF centre and spread    2  ( -2.271633, -2.271633, -1.569898 )     0.83590368
  WF centre and spread    3  ( -2.271633, -2.271633, -1.569898 )     0.83590368
  WF centre and spread    4  ( -2.271633, -2.271633, -1.569898 )     0.78949541
  WF centre and spread    5  ( -2.271633, -2.271633, -1.569898 )     0.84979456
  WF centre and spread    6  (  0.000000,  0.000000,  0.000000 )     0.86015199
  WF centre and spread    7  (  0.000000,  0.000000,  0.000000 )     0.88182041
  WF centre and spread    8  ( -0.000000,  0.000000,  0.000000 )     0.88182042
  WF centre and spread    9  (  0.000000,  0.000000, -0.000000 )     0.84522390
  WF centre and spread   10  (  0.000000,  0.000000,  0.000000 )     0.86680303
  WF centre and spread   11  (  0.878501, -0.878501, -1.569898 )     0.73272168
  WF centre and spread   12  (  0.891142, -0.884750, -1.569898 )     0.71494910
  WF centre and spread   13  (  0.884750, -0.891142, -1.569898 )     0.71494909
  WF centre and spread   14  ( -0.878501,  0.878501, -1.569898 )     0.73272168
  WF centre and spread   15  ( -0.891142,  0.884750, -1.569898 )     0.71494908
  WF centre and spread   16  ( -0.884750,  0.891142, -1.569898 )     0.71494912
  WF centre and spread   17  ( -1.395225, -1.395225,  0.000000 )     0.73891968
  WF centre and spread   18  ( -1.384577, -1.388206,  0.000000 )     0.71151200
  WF centre and spread   19  ( -1.388206, -1.384577,  0.000000 )     0.71151202
  WF centre and spread   20  (  1.395225,  1.395225,  0.000000 )     0.73891968
  WF centre and spread   21  (  1.384577,  1.388206,  0.000000 )     0.71151199
  WF centre and spread   22  (  1.388206,  1.384577,  0.000000 )     0.71151200
  Sum of centres and spreads (-11.358167,-11.358167,-17.268878 )    17.13948045
 
     10    -0.434E-03     0.0190527942       17.1394804481       6.70  <-- CONV
        O_D=      0.0008573 O_OD=      0.3341288 O_TOT=     17.1394804 <-- SPRD
 Delta: O_D=  0.1804124E-05 O_OD= -0.4361753E-03 O_TOT= -0.4343711E-03 <-- DLTA
 ------------------------------------------------------------------------------
 Cycle:     11
  WF centre and spread    1  ( -2.271633, -2.271633, -1.569898 )     0.84359427
  WF centre and spread    2  ( -2.271633, -2.271633, -1.569898 )     0.83612090
  WF centre and spread    3  ( -2.271633, -2.271633, -1.569898 )     0.83612090
  WF centre and spread    4  ( -2.271633, -2.271633, -1.569898 )     0.78956146
  WF centre and spread    5  ( -2.271633, -2.271633, -1.569898 )     0.85003398
  WF centre and spread    6  (  0.000000,  0.000000,  0.000000 )     0.86030904
  WF centre and spread    7  (  0.000000,  0.000000,  0.000000 )     0.88200344
  WF centre and spread    8  ( -0.000000,  0.000000,  0.000000 )     0.88200345
  WF centre and spread    9  (  0.000000,  0.000000, -0.000000 )     0.84524787
  WF centre and spread   10  (  0.000000,  0.000000,  0.000000 )     0.86704729
  WF centre and spread   11  (  0.878463, -0.878463, -1.569898 )     0.73259655
  WF centre and spread   12  (  0.891125, -0.884760, -1.569898 )     0.71477649
  WF centre and spread   13  (  0.884760, -0.891125, -1.569898 )     0.71477648
  WF centre and spread   14  ( -0.878463,  0.878463, -1.569898 )     0.73259655
  WF centre and spread   15  ( -0.891125,  0.884760, -1.569898 )     0.71477647
  WF centre and spread   16  ( -0.884760,  0.891125, -1.569898 )     0.71477650
  WF centre and spread   17  ( -1.395263, -1.395263,  0.000000 )     0.73878772
  WF centre and spread   18  ( -1.384596, -1.388193,  0.000000 )     0.71131894
  WF centre and spread   19  ( -1.388193, -1.384596,  0.000000 )     0.71131895
  WF centre and spread   20  (  1.395263,  1.395263,  0.000000 )     0.73878772
  WF centre and spread   21  (  1.384596,  1.388193,  0.000000 )     0.71131892
  WF centre and spread   22  (  1.388193,  1.384596,  0.000000 )     0.71131894
  Sum of centres and spreads (-11.358167,-11.358167,-17.268878 )    17.13919283
 
     11    -0.288E-03     0.0154078064       17.1391928319       6.72  <-- CONV
        O_D=      0.0008552 O_OD=      0.3338433 O_TOT=     17.1391928 <-- SPRD
 Delta: O_D= -0.2114220E-05 O_OD= -0.2855020E-03 O_TOT= -0.2876162E-03 <-- DLTA
 ------------------------------------------------------------------------------
 Cycle:     12
  WF centre and spread    1  ( -2.271633, -2.271633, -1.569898 )     0.84378172
  WF centre and spread    2  ( -2.271633, -2.271633, -1.569898 )     0.83636526
  WF centre and spread    3  ( -2.271633, -2.271633, -1.569898 )     0.83636526
  WF centre and spread    4  ( -2.271633, -2.271633, -1.569898 )     0.78964101
  WF centre and spread    5  ( -2.271633, -2.271633, -1.569898 )     0.85031951
  WF centre and spread    6  (  0.000000,  0.000000,  0.000000 )     0.86048545
  WF centre and spread    7  (  0.000000,  0.000000,  0.000000 )     0.88220275
  WF centre and spread    8  ( -0.000000,  0.000000,  0.000000 )     0.88220276
  WF centre and spread    9  (  0.000000,  0.000000, -0.000000 )     0.84527459
  WF centre and spread   10  (  0.000000,  0.000000,  0.000000 )     0.86732895
  WF centre and spread   11  (  0.878419, -0.878420, -1.569898 )     0.73245986
  WF centre and spread   12  (  0.891106, -0.884772, -1.569898 )     0.71458460
  WF centre and spread   13  (  0.884772, -0.891106, -1.569898 )     0.71458458
  WF centre and spread   14  ( -0.878420,  0.878420, -1.569898 )     0.73245986
  WF centre and spread   15  ( -0.891106,  0.884772, -1.569898 )     0.71458457
  WF centre and spread   16  ( -0.884772,  0.891106, -1.569898 )     0.71458461
  WF centre and spread   17  ( -1.395307, -1.395307,  0.000000 )     0.73864154
  WF centre and spread   18  ( -1.384617, -1.388176,  0.000000 )     0.71110670
  WF centre and spread   19  ( -1.388176, -1.384617,  0.000000 )     0.71110671
  WF centre and spread   20  (  1.395307,  1.395307,  0.000000 )     0.73864154
  WF centre and spread   21  (  1.384617,  1.388176,  0.000000 )     0.71110668
  WF centre and spread   22  (  1.388176,  1.384617,  0.000000 )     0.71110670
  Sum of centres and spreads (-11.358167,-11.358167,-17.268878 )    17.13893520
 
     12    -0.258E-03     0.0133159405       17.1389351966       6.73  <-- CONV
        O_D=      0.0008542 O_OD=      0.3335867 O_TOT=     17.1389352 <-- SPRD
 Delta: O_D= -0.1000614E-05 O_OD= -0.2566347E-03 O_TOT= -0.2576353E-03 <-- DLTA
 ------------------------------------------------------------------------------
 Cycle:     13
  WF centre and spread    1  ( -2.271633, -2.271633, -1.569898 )     0.84378696
  WF centre and spread    2  ( -2.271633, -2.271633, -1.569898 )     0.83637449
  WF centre and spread    3  ( -2.271633, -2.271633, -1.569898 )     0.83637448
  WF centre and spread    4  ( -2.271633, -2.271633, -1.569898 )     0.78964708
  WF centre and spread    5  ( -2.271633, -2.271633, -1.569898 )     0.85033571
  WF centre and spread    6  (  0.000000,  0.000000,  0.000000 )     0.86048490
  WF centre and spread    7  (  0.000000,  0.000000,  0.000000 )     0.88220280
  WF centre and spread    8  ( -0.000000,  0.000000,  0.000000 )     0.88220281
  WF centre and spread    9  (  0.000000,  0.000000, -0.000000 )     0.84527401
  WF centre and spread   10  (  0.000000,  0.000000,  0.000000 )     0.86734086
  WF centre and spread   11  (  0.878416, -0.878416, -1.569898 )     0.73244938
  WF centre and spread   12  (  0.891105, -0.884773, -1.569898 )     0.71457262
  WF centre and spread   13  (  0.884773, -0.891105, -1.569898 )     0.71457261
  WF centre and spread   14  ( -0.878416,  0.878416, -1.569898 )     0.73244938
  WF centre and spread   15  ( -0.891105,  0.884773, -1.569898 )     0.71457260
  WF centre and spread   16  ( -0.884773,  0.891105, -1.569898 )     0.71457263
  WF centre and spread   17  ( -1.395310, -1.395310,  0.000000 )     0.73863100
  WF centre and spread   18  ( -1.384618, -1.388174,  0.000000 )     0.71109452
  WF centre and spread   19  ( -1.388174, -1.384618,  0.000000 )     0.71109453
  WF centre and spread   20  (  1.395310,  1.395310,  0.000000 )     0.73863100
  WF centre and spread   21  (  1.384618,  1.388174,  0.000000 )     0.71109450
  WF centre and spread   22  (  1.388174,  1.384618,  0.000000 )     0.71109452
  Sum of centres and spreads (-11.358167,-11.358167,-17.268878 )    17.13885338
 
     13    -0.818E-04     0.0104111490       17.1388533770       6.74  <-- CONV
        O_D=      0.0008534 O_OD=      0.3335057 O_TOT=     17.1388534 <-- SPRD
 Delta: O_D= -0.8513172E-06 O_OD= -0.8096829E-04 O_TOT= -0.8181961E-04 <-- DLTA
 ------------------------------------------------------------------------------
 Cycle:     14
  WF centre and spread    1  ( -2.271633, -2.271633, -1.569898 )     0.84381221
  WF centre and spread    2  ( -2.271633, -2.271633, -1.569898 )     0.83641091
  WF centre and spread    3  ( -2.271633, -2.271633, -1.569898 )     0.83641090
  WF centre and spread    4  ( -2.271633, -2.271633, -1.569898 )     0.78966760
  WF centre and spread    5  ( -2.271633, -2.271633, -1.569898 )     0.85039525
  WF centre and spread    6  (  0.000000,  0.000000,  0.000000 )     0.86049526
  WF centre and spread    7  (  0.000000,  0.000000,  0.000000 )     0.88221648
  WF centre and spread    8  ( -0.000000,  0.000000,  0.000000 )     0.88221649
  WF centre and spread    9  (  0.000000,  0.000000, -0.000000 )     0.84527569
  WF centre and spread   10  (  0.000000,  0.000000,  0.000000 )     0.86739184
  WF centre and spread   11  (  0.878406, -0.878406, -1.569898 )     0.73242350
  WF centre and spread   12  (  0.891101, -0.884776, -1.569898 )     0.71454124
  WF centre and spread   13  (  0.884776, -0.891101, -1.569898 )     0.71454123
  WF centre and spread   14  ( -0.878406,  0.878406, -1.569898 )     0.73242350
  WF centre and spread   15  ( -0.891101,  0.884776, -1.569898 )     0.71454122
  WF centre and spread   16  ( -0.884776,  0.891101, -1.569898 )     0.71454126
  WF centre and spread   17  ( -1.395320, -1.395320,  0.000000 )     0.73860445
  WF centre and spread   18  ( -1.384623, -1.388170,  0.000000 )     0.71106262
  WF centre and spread   19  ( -1.388170, -1.384623,  0.000000 )     0.71106264
  WF centre and spread   20  (  1.395320,  1.395320,  0.000000 )     0.73860445
  WF centre and spread   21  (  1.384623,  1.388170,  0.000000 )     0.71106261
  WF centre and spread   22  (  1.388170,  1.384623,  0.000000 )     0.71106262
  Sum of centres and spreads (-11.358167,-11.358167,-17.268878 )    17.13876398
 
     14    -0.894E-04     0.0078925406       17.1387639846       6.76  <-- CONV
        O_D=      0.0008530 O_OD=      0.3334166 O_TOT=     17.1387640 <-- SPRD
 Delta: O_D= -0.3200854E-06 O_OD= -0.8907230E-04 O_TOT= -0.8939239E-04 <-- DLTA
 ------------------------------------------------------------------------------
 Cycle:     15
  WF centre and spread    1  ( -2.271633, -2.271633, -1.569898 )     0.84385190
  WF centre and spread    2  ( -2.271633, -2.271633, -1.569898 )     0.83646889
  WF centre and spread    3  ( -2.271633, -2.271633, -1.569898 )     0.83646889
  WF centre and spread    4  ( -2.271633, -2.271633, -1.569898 )     0.78969765
  WF centre and spread    5  ( -2.271633, -2.271633, -1.569898 )     0.85048277
  WF centre and spread    6  (  0.000000,  0.000000,  0.000000 )     0.86051625
  WF centre and spread    7  (  0.000000,  0.000000,  0.000000 )     0.88224747
  WF centre and spread    8  ( -0.000000,  0.000000,  0.000000 )     0.88224748
  WF centre and spread    9  (  0.000000,  0.000000, -0.000000 )     0.84528122
  WF centre and spread   10  (  0.000000,  0.000000,  0.000000 )     0.86746775
  WF centre and spread   11  (  0.878393, -0.878393, -1.569898 )     0.73238671
  WF centre and spread   12  (  0.891095, -0.884781, -1.569898 )     0.71449644
  WF centre and spread   13  (  0.884781, -0.891095, -1.569898 )     0.71449643
  WF centre and spread   14  ( -0.878393,  0.878393, -1.569898 )     0.73238671
  WF centre and spread   15  ( -0.891095,  0.884781, -1.569898 )     0.71449642
  WF centre and spread   16  ( -0.884781,  0.891095, -1.569898 )     0.71449645
  WF centre and spread   17  ( -1.395333, -1.395333,  0.000000 )     0.73856668
  WF centre and spread   18  ( -1.384629, -1.388163,  0.000000 )     0.71101648
  WF centre and spread   19  ( -1.388163, -1.384629,  0.000000 )     0.71101649
  WF centre and spread   20  (  1.395333,  1.395333,  0.000000 )     0.73856668
  WF centre and spread   21  (  1.384629,  1.388163,  0.000000 )     0.71101647
  WF centre and spread   22  (  1.388163,  1.384629,  0.000000 )     0.71101648
  Sum of centres and spreads (-11.358167,-11.358167,-17.268878 )    17.13868868
 
     15    -0.753E-04     0.0075551170       17.1386886750       6.77  <-- CONV
        O_D=      0.0008528 O_OD=      0.3333416 O_TOT=     17.1386887 <-- SPRD
 Delta: O_D= -0.2715847E-06 O_OD= -0.7503800E-04 O_TOT= -0.7530958E-04 <-- DLTA
 ------------------------------------------------------------------------------
 Cycle:     16
  WF centre and spread    1  ( -2.271633, -2.271633, -1.569898 )     0.84389022
  WF centre and spread    2  ( -2.271633, -2.271633, -1.569898 )     0.83652385
  WF centre and spread    3  ( -2.271633, -2.271633, -1.569898 )     0.83652384
  WF centre and spread    4  ( -2.271633, -2.271633, -1.569898 )     0.78972308
  WF centre and spread    5  ( -2.271633, -2.271633, -1.569898 )     0.85055950
  WF centre and spread    6  (  0.000000,  0.000000,  0.000000 )     0.86054203
  WF centre and spread    7  (  0.000000,  0.000000,  0.000000 )     0.88228397
  WF centre and spread    8  ( -0.000000,  0.000000,  0.000000 )     0.88228398
  WF centre and spread    9  (  0.000000,  0.000000, -0.000000 )     0.84528782
  WF centre and spread   10  (  0.000000,  0.000000,  0.000000 )     0.86753741
  WF centre and spread   11  (  0.878382, -0.878382, -1.569898 )     0.73235320
  WF centre and spread   12  (  0.891090, -0.884784, -1.569898 )     0.71445583
  WF centre and spread   13  (  0.884784, -0.891090, -1.569898 )     0.71445582
  WF centre and spread   14  ( -0.878382,  0.878382, -1.569898 )     0.73235320
  WF centre and spread   15  ( -0.891090,  0.884784, -1.569898 )     0.71445581
  WF centre and spread   16  ( -0.884784,  0.891090, -1.569898 )     0.71445585
  WF centre and spread   17  ( -1.395344, -1.395344,  0.000000 )     0.73853253
  WF centre and spread   18  ( -1.384635, -1.388158,  0.000000 )     0.71097377
  WF centre and spread   19  ( -1.388158, -1.384635,  0.000000 )     0.71097378
  WF centre and spread   20  (  1.395344,  1.395344,  0.000000 )     0.73853253
  WF centre and spread   21  (  1.384635,  1.388158,  0.000000 )     0.71097375
  WF centre and spread   22  (  1.388158,  1.384635,  0.000000 )     0.71097377
  Sum of centres and spreads (-11.358167,-11.358167,-17.268878 )    17.13864555
 
     16    -0.431E-04     0.0064871192       17.1386455507       6.79  <-- CONV
        O_D=      0.0008526 O_OD=      0.3332987 O_TOT=     17.1386456 <-- SPRD
 Delta: O_D= -0.2143832E-06 O_OD= -0.4290992E-04 O_TOT= -0.4312430E-04 <-- DLTA
 ------------------------------------------------------------------------------
 Cycle:     17
  WF centre and spread    1  ( -2.271633, -2.271633, -1.569898 )     0.84392985
  WF centre and spread    2  ( -2.271633, -2.271633, -1.569898 )     0.83658075
  WF centre and spread    3  ( -2.271633, -2.271633, -1.569898 )     0.83658075
  WF centre and spread    4  ( -2.271633, -2.271633, -1.569898 )     0.78974629
  WF centre and spread    5  ( -2.271633, -2.271633, -1.569898 )     0.85063321
  WF centre and spread    6  (  0.000000,  0.000000,  0.000000 )     0.86057332
  WF centre and spread    7  (  0.000000,  0.000000,  0.000000 )     0.88232836
  WF centre and spread    8  ( -0.000000,  0.000000,  0.000000 )     0.88232837
  WF centre and spread    9  (  0.000000,  0.000000, -0.000000 )     0.84529555
  WF centre and spread   10  (  0.000000,  0.000000,  0.000000 )     0.86760711
  WF centre and spread   11  (  0.878372, -0.878372, -1.569898 )     0.73232077
  WF centre and spread   12  (  0.891085, -0.884788, -1.569898 )     0.71441456
  WF centre and spread   13  (  0.884788, -0.891085, -1.569898 )     0.71441455
  WF centre and spread   14  ( -0.878372,  0.878372, -1.569898 )     0.73232077
  WF centre and spread   15  ( -0.891085,  0.884788, -1.569898 )     0.71441454
  WF centre and spread   16  ( -0.884788,  0.891085, -1.569898 )     0.71441458
  WF centre and spread   17  ( -1.395354, -1.395354,  0.000000 )     0.73849942
  WF centre and spread   18  ( -1.384640, -1.388154,  0.000000 )     0.71092924
  WF centre and spread   19  ( -1.388154, -1.384640,  0.000000 )     0.71092925
  WF centre and spread   20  (  1.395354,  1.395354,  0.000000 )     0.73849942
  WF centre and spread   21  (  1.384640,  1.388154,  0.000000 )     0.71092923
  WF centre and spread   22  (  1.388154,  1.384640,  0.000000 )     0.71092924
  Sum of centres and spreads (-11.358167,-11.358167,-17.268878 )    17.13861913
 
     17    -0.264E-04     0.0046779433       17.1386191325       6.80  <-- CONV
        O_D=      0.0008526 O_OD=      0.3332722 O_TOT=     17.1386191 <-- SPRD
 Delta: O_D=  0.8601557E-07 O_OD= -0.2650428E-04 O_TOT= -0.2641827E-04 <-- DLTA
 ------------------------------------------------------------------------------
 Cycle:     18
  WF centre and spread    1  ( -2.271633, -2.271633, -1.569898 )     0.84397094
  WF centre and spread    2  ( -2.271633, -2.271633, -1.569898 )     0.83663991
  WF centre and spread    3  ( -2.271633, -2.271633, -1.569898 )     0.83663991
  WF centre and spread    4  ( -2.271633, -2.271633, -1.569898 )     0.78976903
  WF centre and spread    5  ( -2.271633, -2.271633, -1.569898 )     0.85070698
  WF centre and spread    6  (  0.000000,  0.000000,  0.000000 )     0.86060785
  WF centre and spread    7  (  0.000000,  0.000000,  0.000000 )     0.88237765
  WF centre and spread    8  ( -0.000000,  0.000000,  0.000000 )     0.88237767
  WF centre and spread    9  (  0.000000,  0.000000, -0.000000 )     0.84530413
  WF centre and spread   10  (  0.000000,  0.000000,  0.000000 )     0.86767811
  WF centre and spread   11  (  0.878362, -0.878362, -1.569898 )     0.73228927
  WF centre and spread   12  (  0.891080, -0.884791, -1.569898 )     0.71437175
  WF centre and spread   13  (  0.884791, -0.891080, -1.569898 )     0.71437174
  WF centre and spread   14  ( -0.878362,  0.878362, -1.569898 )     0.73228927
  WF centre and spread   15  ( -0.891080,  0.884791, -1.569898 )     0.71437173
  WF centre and spread   16  ( -0.884791,  0.891080, -1.569898 )     0.71437177
  WF centre and spread   17  ( -1.395364, -1.395364,  0.000000 )     0.73846674
  WF centre and spread   18  ( -1.384646, -1.388150,  0.000000 )     0.71088218
  WF centre and spread   19  ( -1.388150, -1.384646,  0.000000 )     0.71088220
  WF centre and spread   20  (  1.395364,  1.395364,  0.000000 )     0.73846674
  WF centre and spread   21  (  1.384646,  1.388150,  0.000000 )     0.71088217
  WF centre and spread   22  (  1.388150,  1.384646,  0.000000 )     0.71088218
  Sum of centres and spreads (-11.358167,-11.358167,-17.268878 )    17.13859995
 
     18    -0.192E-04     0.0039839252       17.1385999450       6.81  <-- CONV
        O_D=      0.0008529 O_OD=      0.3332527 O_TOT=     17.1385999 <-- SPRD
 Delta: O_D=  0.2669078E-06 O_OD= -0.1945439E-04 O_TOT= -0.1918748E-04 <-- DLTA
 ------------------------------------------------------------------------------
 Cycle:     19
  WF centre and spread    1  ( -2.271633, -2.271633, -1.569898 )     0.84397526
  WF centre and spread    2  ( -2.271633, -2.271633, -1.569898 )     0.83664640
  WF centre and spread    3  ( -2.271633, -2.271633, -1.569898 )     0.83664640
  WF centre and spread    4  ( -2.271633, -2.271633, -1.569898 )     0.78977135
  WF centre and spread    5  ( -2.271633, -2.271633, -1.569898 )     0.85071427
  WF centre and spread    6  (  0.000000,  0.000000,  0.000000 )     0.86061203
  WF centre and spread    7  (  0.000000,  0.000000,  0.000000 )     0.88238329
  WF centre and spread    8  ( -0.000000,  0.000000,  0.000000 )     0.88238331
  WF centre and spread    9  (  0.000000,  0.000000, -0.000000 )     0.84530511
  WF centre and spread   10  (  0.000000,  0.000000,  0.000000 )     0.86768545
  WF centre and spread   11  (  0.878361, -0.878361, -1.569898 )     0.73228630
  WF centre and spread   12  (  0.891079, -0.884791, -1.569898 )     0.71436624
  WF centre and spread   13  (  0.884791, -0.891079, -1.569898 )     0.71436623
  WF centre and spread   14  ( -0.878361,  0.878361, -1.569898 )     0.73228630
  WF centre and spread   15  ( -0.891079,  0.884791, -1.569898 )     0.71436622
  WF centre and spread   16  ( -0.884791,  0.891079, -1.569898 )     0.71436625
  WF centre and spread   17  ( -1.395365, -1.395365,  0.000000 )     0.73846338
  WF centre and spread   18  ( -1.384646, -1.388149,  0.000000 )     0.71087577
  WF centre and spread   19  ( -1.388149, -1.384646,  0.000000 )     0.71087579
  WF centre and spread   20  (  1.395365,  1.395365,  0.000000 )     0.73846338
  WF centre and spread   21  (  1.384646,  1.388149,  0.000000 )     0.71087576
  WF centre and spread   22  (  1.388149,  1.384646,  0.000000 )     0.71087577
  Sum of centres and spreads (-11.358167,-11.358167,-17.268878 )    17.13859027
 
     19    -0.968E-05     0.0036141686       17.1385902677       6.83  <-- CONV
        O_D=      0.0008529 O_OD=      0.3332430 O_TOT=     17.1385903 <-- SPRD
 Delta: O_D=  0.9604637E-08 O_OD= -0.9686864E-05 O_TOT= -0.9677259E-05 <-- DLTA
 ------------------------------------------------------------------------------
 Cycle:     20
  WF centre and spread    1  ( -2.271633, -2.271633, -1.569898 )     0.84398918
  WF centre and spread    2  ( -2.271633, -2.271633, -1.569898 )     0.83666664
  WF centre and spread    3  ( -2.271633, -2.271633, -1.569898 )     0.83666664
  WF centre and spread    4  ( -2.271633, -2.271633, -1.569898 )     0.78977850
  WF centre and spread    5  ( -2.271633, -2.271633, -1.569898 )     0.85073810
  WF centre and spread    6  (  0.000000,  0.000000,  0.000000 )     0.86062577
  WF centre and spread    7  (  0.000000,  0.000000,  0.000000 )     0.88240101
  WF centre and spread    8  ( -0.000000,  0.000000,  0.000000 )     0.88240102
  WF centre and spread    9  (  0.000000,  0.000000, -0.000000 )     0.84530819
  WF centre and spread   10  (  0.000000,  0.000000,  0.000000 )     0.86770994
  WF centre and spread   11  (  0.878357, -0.878357, -1.569898 )     0.73227755
  WF centre and spread   12  (  0.891077, -0.884793, -1.569898 )     0.71435053
  WF centre and spread   13  (  0.884793, -0.891077, -1.569898 )     0.71435052
  WF centre and spread   14  ( -0.878357,  0.878357, -1.569898 )     0.73227755
  WF centre and spread   15  ( -0.891077,  0.884793, -1.569898 )     0.71435051
  WF centre and spread   16  ( -0.884793,  0.891077, -1.569898 )     0.71435054
  WF centre and spread   17  ( -1.395370, -1.395370,  0.000000 )     0.73845376
  WF centre and spread   18  ( -1.384649, -1.388148,  0.000000 )     0.71085750
  WF centre and spread   19  ( -1.388148, -1.384649,  0.000000 )     0.71085752
  WF centre and spread   20  (  1.395370,  1.395370,  0.000000 )     0.73845376
  WF centre and spread   21  (  1.384649,  1.388148,  0.000000 )     0.71085749
  WF centre and spread   22  (  1.388148,  1.384649,  0.000000 )     0.71085751
  Sum of centres and spreads (-11.358167,-11.358167,-17.268878 )    17.13857972
 
     20    -0.105E-04     0.0027038660       17.1385797241       6.84  <-- CONV
        O_D=      0.0008532 O_OD=      0.3332322 O_TOT=     17.1385797 <-- SPRD
 Delta: O_D=  0.2493880E-06 O_OD= -0.1079306E-04 O_TOT= -0.1054367E-04 <-- DLTA
 ------------------------------------------------------------------------------
 Cycle:     21
  WF centre and spread    1  ( -2.271633, -2.271633, -1.569898 )     0.84400965
  WF centre and spread    2  ( -2.271633, -2.271633, -1.569898 )     0.83669637
  WF centre and spread    3  ( -2.271633, -2.271633, -1.569898 )     0.83669637
  WF centre and spread    4  ( -2.271633, -2.271633, -1.569898 )     0.78978881
  WF centre and spread    5  ( -2.271633, -2.271633, -1.569898 )     0.85077454
  WF centre and spread    6  (  0.000000,  0.000000,  0.000000 )     0.86064600
  WF centre and spread    7  (  0.000000,  0.000000,  0.000000 )     0.88242672
  WF centre and spread    8  ( -0.000000,  0.000000,  0.000000 )     0.88242673
  WF centre and spread    9  (  0.000000,  0.000000, -0.000000 )     0.84531240
  WF centre and spread   10  (  0.000000,  0.000000,  0.000000 )     0.86774745
  WF centre and spread   11  (  0.878351, -0.878351, -1.569898 )     0.73226370
  WF centre and spread   12  (  0.891075, -0.884795, -1.569898 )     0.71432810
  WF centre and spread   13  (  0.884795, -0.891075, -1.569898 )     0.71432809
  WF centre and spread   14  ( -0.878351,  0.878351, -1.569898 )     0.73226370
  WF centre and spread   15  ( -0.891075,  0.884795, -1.569898 )     0.71432808
  WF centre and spread   16  ( -0.884795,  0.891075, -1.569898 )     0.71432811
  WF centre and spread   17  ( -1.395376, -1.395376,  0.000000 )     0.73843936
  WF centre and spread   18  ( -1.384652, -1.388145,  0.000000 )     0.71083167
  WF centre and spread   19  ( -1.388145, -1.384652,  0.000000 )     0.71083168
  WF centre and spread   20  (  1.395376,  1.395376,  0.000000 )     0.73843937
  WF centre and spread   21  (  1.384652,  1.388145,  0.000000 )     0.71083165
  WF centre and spread   22  (  1.388145,  1.384652,  0.000000 )     0.71083167
  Sum of centres and spreads (-11.358167,-11.358167,-17.268878 )    17.13857021
 
     21    -0.951E-05     0.0026351510       17.1385702127       6.86  <-- CONV
        O_D=      0.0008535 O_OD=      0.3332224 O_TOT=     17.1385702 <-- SPRD
 Delta: O_D=  0.3050525E-06 O_OD= -0.9816440E-05 O_TOT= -0.9511387E-05 <-- DLTA
 ------------------------------------------------------------------------------
 Cycle:     22
  WF centre and spread    1  ( -2.271633, -2.271633, -1.569898 )     0.84403003
  WF centre and spread    2  ( -2.271633, -2.271633, -1.569898 )     0.83672615
  WF centre and spread    3  ( -2.271633, -2.271633, -1.569898 )     0.83672614
  WF centre and spread    4  ( -2.271633, -2.271633, -1.569898 )     0.78979888
  WF centre and spread    5  ( -2.271633, -2.271633, -1.569898 )     0.85081214
  WF centre and spread    6  (  0.000000,  0.000000,  0.000000 )     0.86066582
  WF centre and spread    7  (  0.000000,  0.000000,  0.000000 )     0.88245216
  WF centre and spread    8  ( -0.000000,  0.000000,  0.000000 )     0.88245217
  WF centre and spread    9  (  0.000000,  0.000000, -0.000000 )     0.84531614
  WF centre and spread   10  (  0.000000,  0.000000,  0.000000 )     0.86778607
  WF centre and spread   11  (  0.878345, -0.878345, -1.569898 )     0.73224902
  WF centre and spread   12  (  0.891072, -0.884797, -1.569898 )     0.71430599
  WF centre and spread   13  (  0.884797, -0.891072, -1.569898 )     0.71430597
  WF centre and spread   14  ( -0.878345,  0.878345, -1.569898 )     0.73224902
  WF centre and spread   15  ( -0.891072,  0.884797, -1.569898 )     0.71430596
  WF centre and spread   16  ( -0.884797,  0.891072, -1.569898 )     0.71430600
  WF centre and spread   17  ( -1.395382, -1.395382,  0.000000 )     0.73842451
  WF centre and spread   18  ( -1.384655, -1.388143,  0.000000 )     0.71080663
  WF centre and spread   19  ( -1.388143, -1.384655,  0.000000 )     0.71080665
  WF centre and spread   20  (  1.395382,  1.395382,  0.000000 )     0.73842451
  WF centre and spread   21  (  1.384655,  1.388143,  0.000000 )     0.71080662
  WF centre and spread   22  (  1.388143,  1.384655,  0.000000 )     0.71080663
  Sum of centres and spreads (-11.358167,-11.358167,-17.268878 )    17.13856322
 
     22    -0.699E-05     0.0025124601       17.1385632216       6.87  <-- CONV
[...]
 |                        Disentanglement          388.95 Mb                  |
 |                            Wannierise:           50.77 Mb                  |
 |                          plot_wannier:           50.77 Mb                  |
 *----------------------------------------------------------------------------*
  
 Reading restart information from file wannier90.1.chk :
 written on 18Jun2024 at 21:48:12 ... done

 Restarting Wannier90 from plotting routines ...

 *---------------------------------------------------------------------------*
 |                               PLOTTING                                    |
 *---------------------------------------------------------------------------*
 
 
 Calculating interpolated band-structure
 
 Time to calculate interpolated band structure       6.073 (sec)
 
 Time for plotting              6.262 (sec)
 Total Execution Time           6.645 (sec)

 *===========================================================================*
 |                             TIMING INFORMATION                            |
 *===========================================================================*
 |    Tag                                                Ncalls      Time (s)|
 |---------------------------------------------------------------------------|
 |kmesh: get                                        :         1         0.262|
 |plot: main                                        :         1         6.262|
 *---------------------------------------------------------------------------*
 
 All done: wannier90 exiting
 
             +---------------------------------------------------+
             |                                                   |
             |                   WANNIER90                       |
             |                                                   |
             +---------------------------------------------------+
             |                                                   |
             |        Welcome to the Maximally-Localized         |
             |        Generalized Wannier Functions code         |
             |            http://www.wannier.org                 |
             |                                                   |
             |                                                   |
             |  Wannier90 Developer Group:                       |
             |    Giovanni Pizzi    (EPFL)                       |
             |    Valerio Vitale    (Cambridge)                  |
             |    David Vanderbilt  (Rutgers University)         |
             |    Nicola Marzari    (EPFL)                       |
             |    Ivo Souza         (Universidad del Pais Vasco) |
             |    Arash A. Mostofi  (Imperial College London)    |
             |    Jonathan R. Yates (University of Oxford)       |
             |                                                   |
             |  For the full list of Wannier90 3.x authors,      |
             |  please check the code documentation and the      |
             |  README on the GitHub page of the code            |
             |                                                   |
             |                                                   |
             |  Please cite                                      |
             |                                                   |
             |  [ref] "Wannier90 as a community code:            |
             |        new features and applications",            |
             |        G. Pizzi et al., J. Phys. Cond. Matt. 32,  |
             |        165902 (2020).                             |
             |        http://doi.org/10.1088/1361-648X/ab51ff    |
             |                                                   |
             |  in any publications arising from the use of      |
             |  this code. For the method please cite            |
             |                                                   |
             |  [ref] "Maximally Localized Generalised Wannier   |
             |         Functions for Composite Energy Bands"     |
             |         N. Marzari and D. Vanderbilt              |
             |         Phys. Rev. B 56 12847 (1997)              |
             |                                                   |
             |  [ref] "Maximally Localized Wannier Functions     |
             |         for Entangled Energy Bands"               |
             |         I. Souza, N. Marzari and D. Vanderbilt    |
             |         Phys. Rev. B 65 035109 (2001)             |
             |                                                   |
             |                                                   |
             | Copyright (c) 1996-2020                           |
             |        The Wannier90 Developer Group and          |
             |        individual contributors                    |
             |                                                   |
             |      Release: 3.1.0        5th March    2020      |
             |                                                   |
             | This program is free software; you can            |
             | redistribute it and/or modify it under the terms  |
             | of the GNU General Public License as published by |
             | the Free Software Foundation; either version 2 of |
             | the License, or (at your option) any later version|
             |                                                   |
             | This program is distributed in the hope that it   |
             | will be useful, but WITHOUT ANY WARRANTY; without |
             | even the implied warranty of MERCHANTABILITY or   |
             | FITNESS FOR A PARTICULAR PURPOSE. See the GNU     |
             | General Public License for more details.          |
             |                                                   |
             | You should have received a copy of the GNU General|
             | Public License along with this program; if not,   |
             | write to the Free Software Foundation, Inc.,      |
             | 675 Mass Ave, Cambridge, MA 02139, USA.           |
             |                                                   |
             +---------------------------------------------------+
             |    Execution started on 18Jun2024 at 21:58:56     |
             +---------------------------------------------------+
 
 ******************************************************************************
 * -> Using CODATA 2006 constant values                                       *
 *    (http://physics.nist.gov/cuu/Constants/index.html)                      *
 * -> Using Bohr value from CODATA                                            *
 ******************************************************************************
 

 Running in parallel on  48 CPUs

 
                                    ------
                                    SYSTEM
                                    ------
 
                              Lattice Vectors (Ang)
                    a_1     4.543267   0.000000   0.000000
                    a_2     0.000000   4.543267   0.000000
                    a_3     0.000000   0.000000   3.139796
 
                   Unit Cell Volume:      64.80939  (Ang^3)
 
                        Reciprocal-Space Vectors (Ang^-1)
                    b_1     1.382966   0.000000   0.000000
                    b_2     0.000000   1.382966   0.000000
                    b_3     0.000000   0.000000   2.001144
  
 *----------------------------------------------------------------------------*
 |   Site       Fractional Coordinate          Cartesian Coordinate (Ang)     |
 +----------------------------------------------------------------------------+
 | Ru   1   0.50000   0.50000   0.50000   |    2.27163   2.27163   1.56990    |
 | Ru   2   0.00000   0.00000   0.00000   |    0.00000   0.00000   0.00000    |
 | O    1   0.19431   0.80569   0.50000   |    0.88280   3.66046   1.56990    |
 | O    2   0.80569   0.19431   0.50000   |    3.66046   0.88280   1.56990    |
 | O    3   0.69431   0.69431   0.00000   |    3.15444   3.15444   0.00000    |
 | O    4   0.30569   0.30569   0.00000   |    1.38883   1.38883   0.00000    |
 *----------------------------------------------------------------------------*
                                ------------
                                K-POINT GRID
                                ------------
  
             Grid size =  6 x  6 x  9      Total points =  324
  
  
 *---------------------------------- MAIN ------------------------------------*
 |  Number of Wannier Functions               :                22             |
 |  Number of Objective Wannier Functions     :                22             |
 |  Number of input Bloch states              :                96             |
 |  Output verbosity (1=low, 5=high)          :                 1             |
 |  Timing Level (1=low, 5=high)              :                 1             |
 |  Optimisation (0=memory, 3=speed)          :                 3             |
 |  Length Unit                               :               Ang             |
 |  Post-processing setup (write *.nnkp)      :                 F             |
 |  Using Gamma-only branch of algorithms     :                 F             |
 *----------------------------------------------------------------------------*
 *------------------------------- WANNIERISE ---------------------------------*
 |  Total number of iterations                :              1000             |
 |  Number of CG steps before reset           :                 5             |
 |  Trial step length for line search         :             2.000             |
 |  Convergence tolerence                     :         0.100E-09             |
 |  Convergence window                        :                -1             |
 |  Iterations between writing output         :                 1             |
 |  Iterations between backing up to disk     :               100             |
 |  Write r^2_nm to file                      :                 F             |
 |  Write xyz WF centres to file              :                 F             |
 |  Write on-site energies <0n|H|0n> to file  :                 F             |
 |  Use guiding centre to control phases      :                 T             |
 |  Use phases for initial projections        :                 F             |
 |  Iterations before starting guiding centres:                 0             |
 |  Iterations between using guiding centres  :                 1             |
 *----------------------------------------------------------------------------*
 *------------------------------- DISENTANGLE --------------------------------*
 |  Using band disentanglement                :                 T             |
 |  Total number of iterations                :              1000             |
 |  Mixing ratio                              :             0.500             |
 |  Convergence tolerence                     :         1.000E-10             |
 |  Convergence window                        :                 3             |
 *----------------------------------------------------------------------------*
 *-------------------------------- PLOTTING ----------------------------------*
 |  Plotting interpolated bandstructure       :                 T             |
 |   Number of K-path sections                :                 2             |
 |   Divisions along first K-path section     :                80             |
 |   Output format                            :           gnuplot             |
 |   Output mode                              :               s-k             |
 *----------------------------------------------------------------------------*
 |   K-space path sections:                                                   |
 |    From: X       0.500  0.500  0.000     To: G       0.000  0.000  0.000   |
 |    From: G       0.000  0.000  0.000     To: X1      0.500 -0.500  0.000   |
 *----------------------------------------------------------------------------*
 Time to read parameters        0.056 (sec)

 *---------------------------------- K-MESH ----------------------------------*
 +----------------------------------------------------------------------------+
 |                    Distance to Nearest-Neighbour Shells                    |
 |                    ------------------------------------                    |
 |          Shell             Distance (Ang^-1)          Multiplicity         |
 |          -----             -----------------          ------------         |
 |             1                   0.222349                      2            |
 |             2                   0.230494                      4            |
 |             3                   0.320261                      8            |
 |             4                   0.325968                      4            |
 |             5                   0.394582                      8            |
 |             6                   0.444699                      2            |
 |             7                   0.460989                      4            |
 |             8                   0.500884                      8            |
 |             9                   0.511810                      8            |
 |            10                   0.515401                      8            |
 |            11                   0.551373                      8            |
 |            12                   0.561318                     16            |
 |            13                   0.640521                      8            |
 |            14                   0.651937                      4            |
 |            15                   0.667048                      2            |
 |            16                   0.680731                     16            |
 |            17                   0.688811                      8            |
 |            18                   0.691483                      4            |
 |            19                   0.705748                      8            |
 |            20                   0.726353                      8            |
 |            21                   0.728887                      8            |
 |            22                   0.742434                      8            |
 |            23                   0.762047                     16            |
 |            24                   0.789163                      8            |
 |            25                   0.810841                      8            |
 |            26                   0.822135                      8            |
 |            27                   0.831059                      8            |
 |            28                   0.842966                     16            |
 |            29                   0.853835                     16            |
 |            30                   0.860290                     16            |
 |            31                   0.889398                      2            |
 |            32                   0.918779                      8            |
 |            33                   0.921978                      4            |
 |            34                   0.932724                      8            |
 |            35                   0.942559                     16            |
 |            36                   0.947250                      8            |
 +----------------------------------------------------------------------------+
 | The b-vectors are chosen automatically                                     |
 | The following shells are used:   1,  2                                     |
 +----------------------------------------------------------------------------+
 |                        Shell   # Nearest-Neighbours                        |
 |                        -----   --------------------                        |
 |                          1               2                                 |
 |                          2               4                                 |
 +----------------------------------------------------------------------------+
 | Completeness relation is fully satisfied [Eq. (B1), PRB 56, 12847 (1997)]  |
 +----------------------------------------------------------------------------+
 |                  b_k Vectors (Ang^-1) and Weights (Ang^2)                  |
 |                  ----------------------------------------                  |
 |            No.         b_k(x)      b_k(y)      b_k(z)        w_b           |
 |            ---        --------------------------------     --------        |
 |             1         0.000000    0.000000    0.222349    10.113422        |
 |             2         0.000000    0.000000   -0.222349    10.113422        |
 |             3         0.230494    0.000000    0.000000     9.411292        |
 |             4        -0.230494    0.000000    0.000000     9.411292        |
 |             5         0.000000    0.230494    0.000000     9.411292        |
 |             6         0.000000   -0.230494    0.000000     9.411292        |
 +----------------------------------------------------------------------------+
 |                           b_k Directions (Ang^-1)                          |
 |                           -----------------------                          |
 |            No.           x           y           z                         |
 |            ---        --------------------------------                     |
 |             1         0.000000    0.000000    0.222349                     |
 |             2         0.230494    0.000000    0.000000                     |
 |             3         0.000000    0.230494    0.000000                     |
 +----------------------------------------------------------------------------+
  
 Time to get kmesh              0.203 (sec)
 *============================================================================*
 |                              MEMORY ESTIMATE                               |
 |         Maximum RAM allocated during each phase of the calculation         |
 *============================================================================*
 |                        Disentanglement          388.95 Mb                  |
 |                            Wannierise:           50.77 Mb                  |
 |                          plot_wannier:           50.77 Mb                  |
 *----------------------------------------------------------------------------*
  
 Reading restart information from file wannier90.1.chk :
 written on 18Jun2024 at 21:48:12 ... done

 Restarting Wannier90 from plotting routines ...

 *---------------------------------------------------------------------------*
 |                               PLOTTING                                    |
 *---------------------------------------------------------------------------*
 
 
 Calculating interpolated band-structure
 
 Time to calculate interpolated band structure       5.598 (sec)
 
 Time for plotting              5.760 (sec)
 Total Execution Time           6.075 (sec)

 *===========================================================================*
 |                             TIMING INFORMATION                            |
 *===========================================================================*
 |    Tag                                                Ncalls      Time (s)|
 |---------------------------------------------------------------------------|
 |kmesh: get                                        :         1         0.203|
 |plot: main                                        :         1         5.760|
 *---------------------------------------------------------------------------*
 
 All done: wannier90 exiting
